27
	Energy:    -559.1253609
Cu        -0.16315        0.89843        0.04963
O         -1.49972        2.45730        0.20041
O         -1.46750       -0.96080        0.23848
O          0.94013        2.76481       -0.17752
O          1.24094       -0.68271        0.04908
C         -2.64409        2.17643        0.01463
C         -2.56691       -0.59367        0.01868
C         -2.79658        0.78523       -0.09863
C          2.17802        2.48410       -0.16460
C          2.49380        1.13938        0.08951
C          2.43503       -0.26192        0.13477
C         -3.71751        3.15875       -0.30134
C         -3.59853       -1.65130       -0.15595
H         -3.32623        4.16540       -0.48821
H         -4.44391        3.21770        0.51747
H         -4.26164        2.85236       -1.20292
H         -4.56927       -1.21410       -0.41501
H         -3.74131       -2.24005        0.75849
H         -3.31946       -2.33573       -0.96521
C          3.19317        3.57519       -0.17627
C          3.62472       -1.15293        0.21975
H          2.74223        4.57226       -0.11422
H          3.80285        3.52884       -1.08630
H          3.87124        3.47417        0.67977
H          4.49597       -0.60607        0.59703
H          3.89229       -1.56035       -0.76277
H          3.44478       -1.99082        0.90345
