7
Lattice="0.0 0.0 0.0 0.0 0.0 0.0 0.0 0.0 0.0" Properties=species:S:1:pos:R:3:Z:I:1:magmoms:R:1:tags:I:1:forces:R:3 energy=nan pbc="F F F"
H      0.00000000       0.00000000      -2.00000000        1       0.00000000        0              nan              nan              nan 
H      0.00000000       0.00000000       2.00000000        1       0.00000000        0              nan              nan              nan 
He      0.00000000       0.00000000       0.00000000        2       0.00000000        0              nan              nan              nan 
X      0.05123602      -0.12755387      -0.01815012        0       0.00000000        0              nan              nan              nan 
X      0.01259187      -0.05203447       1.91340431        0       0.00000000        0              nan              nan              nan 
He     -0.08072917      -0.02019519      -1.96776548        2       0.00000000        0              nan              nan              nan 
He     -0.09008488       0.04498085       0.04679880        2       0.00000000        0              nan              nan              nan 
